####################################################################### 
# 
# This file contains crystal structure data downloaded from the 
# Cambridge Structural Database (CSD) hosted by the Cambridge 
# Crystallographic Data Centre (CCDC) in cooperation with FIZ Karlsruhe.
# 
# Please note that these data are only for research purposes or private use.
# For detailed information please see under Terms & Conditions.
# Full information about CCDC and FIZ Karlsruhe data access policies and 
# citation guidelines are available at http://www.ccdc.cam.ac.uk/access/V1
# 
# Audit and citation data items may have been added by FIZ Karlsruhe. 
# Please retain this information to preserve the provenance of 
# this file and to allow appropriate attribution of the data. 
# 
#######################################################################

data_68820-ICSD
_database_code_depnum_ccdc_archive 'CCDC 1630724'
loop_
_citation_id
_citation_doi
_citation_year
1 10.1088/0953-8984/2/24/001 1990
_audit_update_record             
;
2018-02-26 deposited with the CCDC.	2020-11-26 downloaded from the CCDC.
;
_database_code_ICSD              68820
_chemical_name_systematic        'Lead Iodide (1.8/3.6)'
_chemical_formula_sum            'I3.57 Pb1.785'
_cell_length_a                   4.554
_cell_length_b                   4.554
_cell_length_c                   13.962
_cell_angle_alpha                90
_cell_angle_beta                 90
_cell_angle_gamma                120
_cell_volume                     250.76
_cell_formula_units_Z            1
_symmetry_space_group_name_H-M   'P 3 m 1'
_symmetry_Int_Tables_number      156
_symmetry_cell_setting           trigonal
_refine_ls_R_factor_all          0.049
loop_
_symmetry_equiv_pos_site_id
_symmetry_equiv_pos_as_xyz
1 '-x+y, y, z'
2 'x, x-y, z'
3 '-y, -x, z'
4 '-x+y, -x, z'
5 '-y, x-y, z'
6 'x, y, z'
loop_
_atom_site_label
_atom_site_type_symbol
_atom_site_fract_x
_atom_site_fract_y
_atom_site_fract_z
Pb1 Pb2+ 0.6667 0.3333 0.1325
Pb2 Pb2+ 0.3333 0.6667 0.1325
Pb3 Pb2+ 0.3333 0.6667 0.6336
Pb4 Pb2+ 0.6667 0.3333 0.6336
Pb5 Pb2+ 0 0 0.6656
Pb6 Pb2+ 0.3333 0.6667 0.6656
Pb7 Pb2+ 0.6667 0.3333 0.6656
I1 I1- 0.3333 0.6667 0
I2 I1- 0.6667 0.3333 0
I3 I1- 0 0 0.255
I4 I1- 0.3333 0.6667 0.255
I5 I1- 0 0 0.283
I6 I1- 0.3333 0.6667 0.283
I7 I1- 0 0 0.492
I8 I1- 0.3333 0.6667 0.492
I9 I1- 0.6667 0.3333 0.492
I10 I1- 0.6667 0.3333 0.522
I11 I1- 0.3333 0.6667 0.522
I12 I1- 0 0 0.77
I13 I1- 0.6667 0.3333 0.77

#End of data_68820-ICSD


